2468	0	*	1
4870	1	*	1
63	2	*	1
716	3	*	1
4706	4	*	1
715	3	0.0/4543aa/68.61%	1
4707	4	0.0/4763aa/60.07%	1
711	5	*	1
2975	6	*	1
1286	7	*	1
674	8	*	1
976	9	*	1
1287	7	3e-141/2075:1763aa/25.55%	1
701	10	*	1
700	10	0.0/3533aa/27.69%	1
702	10	0.0/2280:989aa/28.35%	1
1102	11	*	1
2781	12	*	1
3989	13	*	1
3990	13	0.0/3044aa/71.04%	1
5145	14	*	1
1125	15	*	1
1331	16	*	1
3988	13	0.0/1253:794:278aa/28.24%	1
1100	17	*	1
4826	18	*	1
2441	19	*	1
4001	20	*	1
62	21	*	1
4924	22	*	1
3173	18	0.0/1967:691aa/37.3%	1
5140	23	*	1
3414	24	*	1
3998	20	0.0/1740:619aa/42.87%	1
4000	20	0.0/1748:612aa/43.07%	1
1784	25	*	1
3996	20	0.0/1735:615aa/43.27%	1
3999	20	0.0/1804:614aa/43.8%	1
1101	17	0.0/1883:259aa/52.91%	1
4827	18	0.0/1967:690aa/37.61%	1
4002	20	0.0/1750:622aa/42.7%	1
74	26	*	1
1048	27	*	1
3413	24	0.0/1011:818:410aa/40.73%	1
3997	20	0.0/1778:611aa/43.92%	1
57	21	0.0/1958aa/26.94%	1
4656	28	*	1
4666	28	0.0/2434aa/46.58%	1
3995	20	0.0/1741:610aa/45.22%	1
109	26	0.0/2258aa/37.53%	1
73	26	0.0/2335aa/74.46%	1
3987	29	*	1
110	26	0.0/2417aa/39.62%	1
3994	29	5e-112/728:843:491aa/26.92%	1
3908	30	*	1
3986	29	3e-132/719:620aa/19.93%	1
4667	28	6e-120/1384aa/15.84%	1
76	26	0.0/2311aa/43.55%	1
77	26	0.0/2198aa/45.52%	1
1569	31	*	1
58	21	0.0/1970:81aa/31.14%	1
2452	26	0.0/2210aa/41.79%	1
56	21	0.0/1935:80aa/31.71%	1
78	26	0.0/2248aa/46.39%	1
4635	32	*	1
3984	29	7e-69/659:282:562aa/19.78%	1
3985	29	5e-62/743:301:600aa/20.06%	1
3991	29	2e-65/719:466:519aa/21.42%	1
3983	29	3e-64/615:310:509aa/19.51%	1
4050	25	7e-90/1099:475aa/21.25%	1
3992	29	1e-67/746:310:516aa/21.38%	1
3982	29	7e-57/737:570aa/15.35%	1
3993	29	8e-62/707:282:527aa/19.77%	1
60	21	0.0/2031:80aa/33.36%	1
4657	28	9e-95/1386aa/16.28%	1
3832	25	1e-71/1092:752aa/23.18%	1
3157	25	1e-88/1177:619aa/23.67%	1
1879	33	*	1
1420	34	*	1
4553	35	*	1
3412	36	*	1
3386	34	0.0/2109aa/56.91%	1
1558	37	*	1
3385	38	*	1
1782	39	*	1
590	40	*	1
3562	41	*	1
971	42	*	1
4720	43	*	1
4048	44	*	1
1780	39	0.0/1896aa/64.58%	1
1783	39	0.0/1895aa/62.1%	1
594	40	0.0/694:500aa/36.25%	1
4051	12	2e-123/1188:368aa/25.83%	1
593	40	0.0/995aa/39.6%	1
972	42	0.0/1882aa/55.58%	1
591	40	0.0/1114aa/43.2%	1
603	45	*	1
1781	39	0.0/1267:507aa/42.57%	1
592	40	0.0/1042:705aa/55.64%	1
4013	46	*	1
4017	47	*	1
4012	47	0.0/1134aa/22.55%	1
3552	41	0.0/796:446:85aa/29.16%	1
4815	48	*	1
1292	49	*	1
4173	50	*	1
4814	48	0.0/1725aa/84.42%	1
4878	51	*	1
3912	52	*	1
604	45	0.0/1795aa/60.16%	1
3629	53	*	1
4651	54	*	1
589	40	0.0/702:1028aa/55.8%	1
3564	41	0.0/798:87:308aa/27.87%	1
1177	55	*	1
1202	56	*	1
3630	53	0.0/1333aa/42.16%	1
59	57	*	1
61	57	0.0/1636aa/54.06%	1
3554	41	0.0/721:511:248aa/44.04%	1
2976	58	*	1
775	59	*	1
4869	60	*	1
4813	48	0.0/1361aa/37.02%	1
793	61	*	1
3044	62	*	1
3553	41	0.0/759:228aa/32.44%	1
794	63	*	1
4709	64	*	1
1416	65	*	1
798	61	0.0/633:227aa/27.43%	1
4011	66	*	1
3441	67	*	1
3560	41	0.0/783:304:81aa/30.33%	1
4767	68	*	1
735	69	*	1
4049	44	0.0/912:544aa/51.49%	1
1830	70	*	1
3114	71	*	1
4354	72	*	1
3551	41	0.0/786:208:108aa/30.74%	1
3558	41	0.0/755:248:90aa/34.78%	1
4728	73	*	1
792	63	0.0/1341aa/41.9%	1
3913	52	0.0/952:205aa/45.03%	1
1526	74	*	1
4052	44	1e-107/952aa/21.43%	1
3883	75	*	1
1115	71	7e-71/521:709aa/22.91%	1
3508	76	*	1
3886	77	*	1
3885	77	0.0/1453aa/57.8%	1
4014	66	0.0/1474aa/57.06%	1
3411	78	*	1
3507	76	0.0/1513aa/54.78%	1
4010	46	1e-83/1033:169aa/23.93%	1
4016	66	0.0/1482aa/56.7%	1
1360	79	*	1
796	61	0.0/643:223aa/28.02%	1
804	61	0.0/662:224aa/27.81%	1
934	80	*	1
4942	81	*	1
1030	82	*	1
1056	56	6e-58/777:692aa/24.98%	1
3557	41	0.0/740:286:66aa/30.28%	1
3410	78	2e-179/886:520aa/37.75%	1
3556	41	0.0/799:174:67aa/30.81%	1
4015	66	0.0/1465aa/54.4%	1
3559	41	0.0/780:215:84aa/31.91%	1
802	61	0.0/649:231aa/31.98%	1
4729	73	0.0/1543aa/80.06%	1
3563	41	0.0/744:292:103aa/36.08%	1
626	83	*	1
651	84	*	1
797	61	0.0/631:224aa/30.6%	1
1209	85	*	1
1043	86	*	1
2571	87	*	1
3717	88	*	1
2595	89	*	1
1029	82	0.0/1288aa/46.58%	1
4646	90	*	1
799	61	0.0/635:248aa/31.95%	1
3921	54	0.0/903:180aa/30.02%	1
776	59	0.0/1285aa/40.74%	1
4918	91	*	1
3939	73	0.0/1350aa/40.92%	1
55	65	2e-158/1420aa/30.03%	1
3521	92	*	1
3838	81	3e-121/803:398aa/25.69%	1
3715	93	*	1
1028	82	0.0/1269aa/55.64%	1
4645	90	5e-162/835:446aa/31.55%	1
3856	94	*	1
4941	81	0.0/925:497aa/36.26%	1
2577	95	*	1
53	96	*	1
3716	88	0.0/833aa/45.42%	1
4423	97	*	1
1855	98	*	1
4009	99	*	1
3848	100	*	1
2657	101	*	1
3561	41	0.0/725:218:80aa/38.29%	1
4487	102	*	1
5054	103	*	1
1525	87	2e-41/340:494aa/19.95%	1
3910	104	*	1
4672	105	*	1
4673	105	0.0/437:148:71aa/36.58%	1
3032	106	*	1
3803	107	*	1
3623	103	4e-141/401:358aa/24.62%	1
4485	102	0.0/1331aa/70.36%	1
3518	92	0.0/1290aa/39.82%	1
3777	108	*	1
4172	109	*	1
4557	110	*	1
4923	111	*	1
3911	104	0.0/1260aa/50.43%	1
650	112	*	1
4007	99	0.0/1276aa/35.37%	1
4551	113	*	1
3181	114	*	1
4006	99	0.0/1182aa/30.27%	1
4004	99	0.0/1187aa/32.21%	1
2673	115	*	1
4008	99	0.0/1224aa/32.2%	1
3855	94	0.0/1350aa/58.19%	1
2576	95	5e-160/973:168aa/38.88%	1
2671	115	0.0/626:529aa/47.18%	1
4005	99	0.0/1207aa/31.88%	1
800	61	0.0/712:257aa/31.66%	1
4003	99	0.0/1181aa/32.92%	1
2624	116	*	1
3896	100	0.0/1261aa/42.46%	1
1113	117	*	1
2672	115	0.0/624:488aa/47.68%	1
791	61	0.0/650:255aa/30.39%	1
803	63	0.0/630:238aa/31.38%	1
3894	100	0.0/892aa/35.85%	1
3930	118	*	1
617	59	0.0/1056aa/30.99%	1
801	61	0.0/643:228aa/30.3%	1
795	61	0.0/633:220aa/31.01%	1
693	119	*	1
974	120	*	1
3513	121	*	1
805	61	0.0/656:218aa/30.38%	1
3171	122	*	1
4674	123	*	1
1381	124	*	1
4550	113	0.0/906aa/36.6%	1
747	125	*	1
3622	103	8e-135/426:385aa/28.87%	1
4765	68	2e-120/1115aa/25.8%	1
3895	100	0.0/887aa/33.16%	1
3382	126	*	1
773	59	0.0/1060aa/30.51%	1
72	127	*	1
4188	128	*	1
4766	68	1e-111/1205aa/27.33%	1
3002	129	*	1
2477	130	*	1
3897	100	4e-126/457:667aa/37.95%	1
4768	131	*	1
1829	132	*	1
635	133	*	1
975	120	0.0/1186aa/50%	1
4422	134	*	1
4558	110	0.0/1192aa/53.01%	1
3536	135	*	1
1403	136	*	1
3776	108	0.0/867:329aa/85.31%	1
1005	137	*	1
2522	138	*	1
4648	139	*	1
1389	136	8e-104/927aa/24.28%	1
3581	140	*	1
4669	141	*	1
536	142	*	1
3773	143	*	1
4671	141	0.0/928aa/39.61%	1
4327	144	*	1
3001	129	0.0/1096aa/54.92%	1
5036	120	2e-132/1214aa/34.06%	1
653	145	*	1
3914	104	4e-59/452:301aa/23.04%	1
3795	120	1e-126/1154aa/32.5%	1
4046	146	*	1
1362	79	0.0/903aa/32.58%	1
3981	46	9e-168/1128aa/32.67%	1
4691	72	0.0/1107aa/54.26%	1
3774	143	0.0/1039aa/43.7%	1
3384	147	*	1
616	59	4e-138/1031aa/29.53%	1
254	148	*	1
3865	149	*	1
538	142	0.0/1180aa/44.63%	1
1833	150	*	1
3889	151	*	1
4670	141	0.0/1177aa/40.67%	1
3933	118	4e-61/368:301aa/23.26%	1
4176	152	*	1
3849	100	5e-111/464:301aa/33.15%	1
2674	115	1e-155/627:385aa/32.84%	1
2675	115	5e-152/628:434aa/35.95%	1
4737	153	*	1
609	154	*	1
712	155	*	1
4486	156	*	1
3929	157	*	1
4045	146	0.0/1069aa/48.19%	1
1138	158	*	1
1831	70	0.0/808aa/68%	1
3920	118	2e-52/339:263:80aa/21.97%	1
3863	149	8e-161/908aa/30.28%	1
2757	159	*	1
3862	149	6e-176/997aa/33.52%	1
4326	144	0.0/1106aa/52.34%	1
684	160	*	1
888	161	*	1
4089	162	*	1
2471	130	0.0/920aa/37.95%	1
2479	130	0.0/434:390aa/35.7%	1
3024	163	*	1
2473	130	5e-175/451:402aa/36.92%	1
2606	164	*	1
4299	165	*	1
3934	118	3e-59/360:318aa/23.9%	1
5039	120	1e-128/1001aa/30.14%	1
1363	166	*	1
3864	149	5e-161/872aa/29.4%	1
4861	167	*	1
1201	85	3e-126/1009aa/30.57%	1
5042	120	2e-55/364:242aa/20.03%	1
5035	120	1e-77/979aa/27.09%	1
3919	118	3e-50/338:263:78aa/22.29%	1
5016	120	3e-56/338:300aa/22.09%	1
1832	150	0.0/512:472aa/57.49%	1
1872	168	*	1
2466	169	*	1
4062	170	*	1
4705	72	0.0/577:212aa/38.22%	1
1200	85	2e-136/1011aa/31.14%	1
774	171	*	1
5029	172	*	1
990	173	*	1
687	174	*	1
537	142	2e-58/1055aa/25.09%	1
661	175	*	1
3170	122	3e-78/564:185aa/23.16%	1
2597	176	*	1
4975	177	*	1
4755	178	*	1
3624	179	*	1
3047	180	*	1
2527	181	*	1
1149	158	0.0/991aa/69.45%	1
4592	182	*	1
1516	183	*	1
662	175	0.0/978aa/41.21%	1
688	174	0.0/618:238aa/38.42%	1
3871	184	*	1
3028	185	*	1
4989	186	*	1
686	174	0.0/1014aa/38.28%	1
1518	187	*	1
2476	130	0.0/957aa/44.87%	1
4738	188	*	1
1148	158	0.0/957aa/57.23%	1
3857	94	0.0/427:522aa/56.77%	1
3442	189	*	1
1147	158	6e-151/984aa/34.02%	1
985	190	*	1
4587	191	*	1
4088	192	*	1
2977	193	*	1
1027	194	*	1
3617	179	4e-62/385:120aa/18.24%	1
1152	158	0.0/964aa/57.5%	1
1210	195	*	1
3015	196	*	1
54	197	*	1
3614	103	2e-76/400:278aa/24.21%	1
3029	198	*	1
2478	199	*	1
2605	200	*	1
4886	201	*	1
5070	179	1e-94/405:326aa/28.88%	1
713	155	2e-91/759aa/34.39%	1
1156	158	0.0/947aa/40.55%	1
2799	202	*	1
3772	203	*	1
4063	204	*	1
1040	205	*	1
689	195	2e-10/481aa/9.81%	1
266	206	*	1
2790	202	0.0/851aa/48.71%	1
2475	130	0.0/877aa/42.29%	1
3922	118	2e-48/349:342aa/24.43%	1
1150	158	0.0/932aa/57.4%	1
2387	207	*	1
2480	130	5e-166/430:241aa/33.36%	1
4747	153	2e-31/605:190aa/23.28%	1
652	145	2e-67/582:156aa/29.24%	1
899	208	*	1
4331	144	4e-48/665aa/17.88%	1
2794	202	0.0/883aa/44.7%	1
2568	209	*	1
2814	210	*	1
2596	211	*	1
5053	212	*	1
1822	213	*	1
2543	214	*	1
4986	215	*	1
668	216	*	1
900	208	0.0/935aa/51.85%	1
2676	217	*	1
2798	202	0.0/873aa/44.27%	1
3621	179	8e-45/415:131aa/18.66%	1
1410	218	*	1
3728	219	*	1
3799	220	*	1
1041	205	0.0/923aa/51.58%	1
1144	158	0.0/922aa/40.26%	1
2728	193	0.0/899aa/46.42%	1
2386	76	6e-49/760aa/20.83%	1
1840	221	*	1
1155	158	0.0/948aa/41.87%	1
3555	222	*	1
2609	215	0.0/923aa/61.24%	1
1272	223	*	1
4511	224	*	1
1320	225	*	1
1842	221	0.0/919aa/53.77%	1
4676	226	*	1
2791	202	0.0/945aa/55.39%	1
3890	151	3e-133/809aa/30.47%	1
956	227	*	1
1153	158	0.0/564aa/36.6%	1
2792	202	0.0/918aa/52.79%	1
2793	202	0.0/894aa/51.56%	1
2815	210	0.0/967aa/53.23%	1
1126	228	*	1
1811	229	*	1
3174	230	*	1
916	231	*	1
1154	158	0.0/934aa/42.05%	1
1841	221	0.0/893aa/45.3%	1
1848	232	*	1
3392	233	*	1
1151	158	5e-133/943aa/33.37%	1
1139	158	2e-138/927aa/33.18%	1
1513	234	*	1
1804	235	*	1
3619	236	*	1
1488	237	*	1
2474	130	0.0/863aa/39.41%	1
3615	238	*	1
4730	239	*	1
2796	202	0.0/844aa/40.51%	1
3960	240	*	1
2582	211	0.0/938aa/63.05%	1
973	241	*	1
2557	242	*	1
1123	243	*	1
1146	158	6e-143/838aa/33.74%	1
2590	244	*	1
4411	245	*	1
3875	246	*	1
4081	247	*	1
1512	234	5e-159/910aa/36.36%	1
4913	248	*	1
1853	249	*	1
2729	193	0.0/862aa/48%	1
3616	236	0.0/822aa/53.58%	1
1515	234	0.0/884aa/47.32%	1
2795	202	0.0/793aa/40.13%	1
1506	234	2e-136/920aa/32.64%	1
142	250	*	1
1142	158	2e-143/947aa/34.62%	1
3646	251	*	1
1211	252	*	1
4925	193	0.0/896aa/49.14%	1
4413	245	4e-94/550:177aa/35.09%	1
1514	234	8e-163/909aa/37.77%	1
1386	253	*	1
2584	254	*	1
1157	158	1e-134/824aa/32.68%	1
1175	255	*	1
3891	151	4e-123/811aa/33.25%	1
2486	256	*	1
3931	157	0.0/873aa/53.34%	1
4078	257	*	1
4509	224	0.0/855aa/47.86%	1
2789	202	0.0/851aa/41.91%	1
3731	219	5e-83/685aa/25.26%	1
3775	203	1e-81/779aa/24.47%	1
659	258	*	1
1505	234	6e-151/912aa/37.74%	1
2487	256	0.0/871aa/61.69%	1
1141	158	2e-135/831aa/32.67%	1
2592	259	*	1
3647	251	0.0/818aa/35.78%	1
4802	229	0.0/895aa/45.84%	1
606	260	*	1
1140	158	9e-142/913aa/35.63%	1
3735	219	2e-55/326:179aa/19.92%	1
4799	261	*	1
1508	234	0.0/890aa/70.07%	1
4735	262	*	1
2816	210	0.0/942aa/50.52%	1
3734	263	*	1
1143	158	3e-122/872aa/32.39%	1
4067	264	*	1
1456	265	*	1
3743	219	4e-53/573aa/19.9%	1
1136	158	2e-140/907aa/36.18%	1
1137	158	9e-126/830aa/31.67%	1
1145	158	5e-135/826aa/34.79%	1
3618	238	0.0/883aa/51.54%	1
5007	266	*	1
2514	267	*	1
3955	240	0.0/797aa/41.12%	1
4818	268	*	1
4844	269	*	1
1135	158	7e-141/905aa/34.24%	1
1158	158	1e-133/894aa/34.76%	1
1507	234	2e-163/901aa/39.95%	1
2558	120	5e-100/766aa/31.81%	1
4882	270	*	1
4066	264	0.0/834aa/46.46%	1
4824	271	*	1
3961	240	2e-166/766aa/34.77%	1
2618	272	*	1
2450	229	0.0/889aa/46.14%	1
2995	273	*	1
3730	219	3e-91/710aa/28.43%	1
3732	219	1e-80/739aa/26.02%	1
5013	274	*	1
2229	240	9e-41/565aa/16.66%	1
2435	245	0.0/755aa/48.3%	1
2455	275	*	1
3645	251	0.0/810aa/42.06%	1
3739	263	0.0/865aa/54.42%	1
3517	276	*	1
3945	240	1e-155/769aa/35.55%	1
5041	229	0.0/899aa/44.41%	1
1481	277	*	1
1812	278	*	1
1813	278	0.0/827aa/51.21%	1
3535	279	*	1
3737	263	0.0/837aa/42.7%	1
1511	234	1e-147/767aa/34.1%	1
3008	280	*	1
3948	240	2e-117/760aa/30.32%	1
4502	274	1e-122/845aa/36.54%	1
3723	219	1e-47/621aa/21.7%	1
3935	157	0.0/825aa/44.51%	1
3947	240	6e-163/810aa/36.06%	1
3928	157	0.0/823aa/47.12%	1
3608	238	2e-84/549aa/22.79%	1
3840	281	*	1
3953	240	1e-119/760aa/30.75%	1
4415	245	2e-112/700aa/29.04%	1
1745	282	*	1
5027	229	2e-177/820aa/40.12%	1
2406	283	*	1
3607	284	*	1
3837	285	*	1
3014	196	0.0/581aa/45.38%	1
4179	286	*	1
4412	245	1e-159/767aa/35.79%	1
3956	240	1e-153/670aa/32.63%	1
3951	240	4e-138/769aa/32.05%	1
3959	240	1e-166/762aa/36.99%	1
1805	235	7e-134/403:284aa/44.32%	1
2731	287	*	1
3729	219	5e-81/696aa/27.07%	1
3740	263	0.0/803aa/39.43%	1
3957	240	7e-170/754aa/37.08%	1
4836	288	*	1
2432	245	6e-173/750aa/36.63%	1
1962	185	3e-152/538aa/31.97%	1
3903	151	5e-68/712aa/26.27%	1
3941	289	*	1
3946	240	1e-172/807aa/39.52%	1
4727	290	*	1
4535	291	*	1
4786	292	*	1
1261	212	4e-16/724aa/18.43%	1
676	245	1e-167/779aa/37.15%	1
2231	293	*	1
3918	104	3e-45/433:266aa/26.21%	1
1291	294	*	1
3510	295	*	1
2607	296	*	1
4692	297	*	1
1323	298	*	1
3736	263	3e-169/801aa/38.47%	1
2392	299	*	1
2235	300	*	1
1963	185	1e-153/521aa/32.57%	1
3018	301	*	1
4843	302	*	1
3738	263	7e-137/853aa/34.76%	1
3733	219	2e-92/734aa/30.37%	1
1752	303	*	1
3901	151	2e-66/630aa/22.81%	1
3954	304	*	1
2608	296	0.0/779aa/43.4%	1
3043	305	*	1
4637	306	*	1
4064	204	0.0/789aa/61.06%	1
4636	307	*	1
4817	268	4e-45/816aa/27.77%	1
3923	151	5e-69/775aa/27.04%	1
4410	245	0.0/761aa/41.45%	1
3643	251	0.0/796aa/43.09%	1
3940	308	*	1
3744	219	1e-67/546aa/21.89%	1
3869	309	*	1
669	216	0.0/769:35aa/58.3%	1
3746	219	4e-69/567aa/22.77%	1
1260	212	1e-17/736aa/19.71%	1
4791	310	*	1
4937	311	*	1
666	312	*	1
1750	313	*	1
2741	160	9e-25/300:233aa/19.4%	1
679	314	*	1
3904	151	1e-75/687aa/27.46%	1
4510	224	1e-133/840aa/37.61%	1
30	315	*	1
4790	310	0.0/789aa/53.89%	1
5095	316	*	1
117	250	0.0/765aa/47.98%	1
2996	273	0.0/577aa/51.43%	1
1404	317	*	1
64	318	*	1
2587	319	*	1
3612	179	9e-12/377:156aa/16.49%	1
3979	320	*	1
96	321	*	1
1439	313	0.0/761aa/40.89%	1
1409	322	*	1
2654	323	*	1
3932	157	4e-162/772aa/39.63%	1
3741	219	2e-54/574aa/21.44%	1
4643	324	*	1
2379	325	*	1
1765	326	*	1
1961	185	1e-156/511aa/34.03%	1
5061	225	1e-26/543aa/16.51%	1
3899	151	2e-77/693aa/26.71%	1
784	327	*	1
1099	328	*	1
3642	251	7e-83/619aa/26.46%	1
3613	329	*	1
1767	326	0.0/752aa/54.4%	1
3433	330	*	1
1766	326	0.0/751aa/52.33%	1
281	331	*	1
1770	326	0.0/761aa/53.74%	1
2453	245	3e-135/869aa/38.15%	1
4560	332	*	1
1768	326	0.0/729aa/50%	1
608	333	*	1
1561	334	*	1
2578	335	*	1
2604	336	*	1
2715	321	2e-44/598aa/20.96%	1
547	337	*	1
3572	338	*	1
3692	339	*	1
2585	259	1e-70/461aa/26.58%	1
3742	219	7e-51/552aa/20.51%	1
85	340	*	1
1920	341	*	1
3620	329	1e-145/382:102aa/33.55%	1
3789	342	*	1
4839	343	*	1
2677	217	1e-23/277:187aa/18.04%	1
1374	221	4e-128/616aa/33.01%	1
3705	344	*	1
279	331	0.0/737aa/57.98%	1
4470	345	*	1
1740	313	2e-108/739aa/36.35%	1
38	321	4e-36/679aa/22.42%	1
585	337	3e-29/679aa/22.83%	1
1283	346	*	1
2374	347	*	1
95	321	0.0/706aa/50.82%	1
1444	313	2e-88/724aa/34.02%	1
1769	326	4e-170/752aa/40.22%	1
3057	313	4e-99/718aa/31.26%	1
596	348	*	1
2433	245	6e-133/739aa/35.17%	1
3056	313	4e-98/729aa/32.55%	1
4235	349	*	1
272	331	5e-168/743aa/40.88%	1
1387	253	0.0/870aa/70.58%	1
3633	350	*	1
1741	313	2e-104/718aa/34.07%	1
2431	245	0.0/751aa/43.76%	1
3019	301	0.0/800aa/70.91%	1
39	337	6e-37/591aa/21.35%	1
1742	313	3e-119/734aa/36.33%	1
2820	351	*	1
3609	284	0.0/710aa/56.17%	1
541	321	8e-30/507aa/18.33%	1
1732	303	8e-101/787aa/31.38%	1
2667	232	0.0/612aa/49.72%	1
2691	321	4e-28/612aa/22.36%	1
282	331	0.0/756aa/46.87%	1
1743	313	1e-123/737aa/35.6%	1
1445	313	2e-90/704aa/31.05%	1
2438	245	3e-106/771aa/32.45%	1
2575	352	*	1
3949	304	5e-22/514aa/16.15%	1
4058	353	*	1
5127	354	*	1
2517	355	*	1
1747	313	0.0/722aa/64.89%	1
1749	313	0.0/728aa/58.6%	1
5094	356	*	1
1013	357	*	1
3571	338	0.0/694aa/57.14%	1
4329	358	*	1
5021	359	*	1
3819	360	*	1
3820	360	0.0/702aa/56.32%	1
4452	361	*	1
4763	362	*	1
1321	363	*	1
2046	364	*	1
2800	160	3e-125/737aa/31.64%	1
4065	365	*	1
4057	366	*	1
4414	245	0.0/752aa/45.35%	1
4838	343	1e-155/727aa/41.12%	1
277	331	0.0/736aa/46.54%	1
1238	367	*	1
1869	368	*	1
2434	245	0.0/747aa/47.67%	1
4789	245	3e-56/662aa/24.11%	1
1748	313	0.0/725aa/57.06%	1
3179	369	*	1
1798	370	*	1
2680	371	*	1
1489	372	*	1
1565	337	6e-16/522aa/16.02%	1
4722	318	2e-29/533aa/17.3%	1
1457	265	2e-27/418:185aa/25.99%	1
4417	373	*	1
4943	218	1e-21/533aa/16.33%	1
50	374	*	1
667	375	*	1
1097	198	2e-14/539aa/17.66%	1
531	337	0.0/665aa/55.06%	1
2690	321	8e-48/654aa/25.96%	1
2980	376	*	1
2992	160	5e-121/729aa/32.95%	1
186	377	*	1
269	331	2e-57/553aa/23.28%	1
274	331	6e-159/740aa/40%	1
275	331	5e-76/705aa/27.85%	1
2713	321	6e-36/504aa/18.57%	1
4725	337	3e-38/642aa/21.28%	1
540	321	2e-46/643aa/23.74%	1
2437	245	2e-123/762aa/36.76%	1
2678	371	2e-110/335:144aa/36.15%	1
2458	378	*	1
1186	379	*	1
1395	380	*	1
3415	121	1e-58/685aa/26.9%	1
3761	381	*	1
271	331	2e-69/586aa/26.3%	1
2819	351	0.0/720aa/55.49%	1
4056	366	0.0/643aa/57.8%	1
1517	314	2e-80/706aa/27.93%	1
3417	121	2e-51/696aa/26.77%	1
4746	382	*	1
2236	300	8e-170/685aa/40.57%	1
4471	345	2e-160/660aa/41.01%	1
4909	383	*	1
2714	321	8e-32/505aa/19.88%	1
4192	384	*	1
532	337	2e-124/684aa/32.99%	1
3841	385	*	1
5088	386	*	1
51	374	0.0/640aa/52.83%	1
762	387	*	1
1009	212	8e-52/516aa/22.85%	1
2711	388	*	1
546	337	7e-118/650aa/32.94%	1
1878	245	4e-92/743aa/31.92%	1
2516	267	2e-67/504aa/22.44%	1
1503	389	*	1
1923	390	*	1
4403	391	*	1
1810	392	*	1
1835	393	*	1
3718	394	*	1
4810	395	*	1
2436	245	4e-147/737aa/38.85%	1
2817	351	0.0/736aa/54.1%	1
273	331	1e-72/586aa/26.72%	1
935	321	8e-160/685aa/40.38%	1
2776	396	*	1
3798	397	*	1
4606	398	*	1
4922	399	*	1
2193	400	*	1
2591	401	*	1
1865	368	5e-97/458:123aa/33.57%	1
3416	121	8e-71/681aa/28.71%	1
3745	368	7e-31/621aa/22.38%	1
4467	402	*	1
65	374	1e-68/600aa/26.54%	1
2818	351	0.0/729aa/74.33%	1
649	160	3e-128/701aa/34.26%	1
2825	351	0.0/723aa/57.01%	1
4921	403	*	1
1509	389	0.0/679aa/47.48%	1
1985	404	*	1
2712	321	2e-32/475aa/18.63%	1
3045	405	*	1
3182	114	1e-154/641aa/46.74%	1
4920	403	0.0/678aa/58.57%	1
264	331	1e-66/630aa/26.22%	1
2238	300	5e-80/398aa/22.37%	1
4059	353	0.0/724aa/58.66%	1
251	148	0.0/608aa/55.63%	1
2797	160	2e-173/695aa/40.35%	1
4990	406	*	1
34	337	2e-42/644aa/23.62%	1
68	374	2e-63/602aa/25.4%	1
1550	407	*	1
1807	321	2e-43/650aa/24.96%	1
3704	344	0.0/738aa/58.24%	1
656	408	*	1
1364	166	3e-114/716aa/36.6%	1
3809	409	*	1
1501	389	0.0/677aa/46.34%	1
2775	410	*	1
1012	212	2e-25/735aa/22.53%	1
2827	351	0.0/728aa/56.41%	1
3406	411	*	1
3712	412	*	1
4608	327	1e-14/596aa/21.94%	1
270	331	5e-69/573aa/25.71%	1
1263	212	9e-37/735aa/23.91%	1
1786	345	2e-75/552aa/27.35%	1
3169	386	2e-68/471aa/22.57%	1
5084	356	2e-26/414aa/15.39%	1
102	413	*	1
1502	389	1e-151/681aa/42.81%	1
3720	414	*	1
97	321	0.0/652aa/53.67%	1
788	327	2e-138/475aa/33.73%	1
1806	321	2e-56/631aa/25.93%	1
2593	415	*	1
4798	314	3e-126/684aa/34.78%	1
936	321	0.0/657aa/43.54%	1
2484	407	5e-35/431aa/16.36%	1
2689	321	2e-48/656aa/26.57%	1
1913	416	*	1
1983	404	7e-105/700aa/34.73%	1
2688	321	6e-54/651aa/25.71%	1
2778	417	*	1
259	331	5e-78/588aa/27.4%	1
4402	288	4e-126/455aa/30.12%	1
2787	160	1e-113/700aa/33.03%	1
2788	160	7e-106/705aa/33.18%	1
3383	418	*	1
4477	419	*	1
278	331	0.0/729aa/47.28%	1
2993	160	2e-98/699aa/31.57%	1
4496	420	*	1
268	331	2e-90/707aa/32.22%	1
908	421	*	1
4622	422	*	1
2687	321	6e-44/656aa/26.51%	1
280	331	2e-70/598aa/25.34%	1
979	423	*	1
563	424	*	1
1921	341	2e-123/760aa/39.36%	1
2405	425	*	1
2831	351	0.0/726aa/58.9%	1
84	426	*	1
2515	267	2e-80/571aa/28.2%	1
2974	427	*	1
4303	428	*	1
4342	429	*	1
66	374	2e-86/680aa/32.36%	1
1820	430	*	1
3542	431	*	1
655	408	8e-66/713aa/36.85%	1
761	387	0.0/651aa/47.85%	1
919	432	*	1
3817	433	*	1
4641	434	*	1
2198	396	2e-34/414aa/16.84%	1
67	374	3e-61/566aa/25%	1
639	419	0.0/663aa/58.89%	1
1779	435	*	1
3046	405	0.0/675aa/65.18%	1
3797	397	2e-157/345aa/32.36%	1
4495	420	0.0/604aa/48.15%	1
3725	436	*	1
530	337	7e-41/664aa/24.3%	1
3172	437	*	1
4473	438	*	1
4936	369	4e-49/689aa/27.23%	1
677	439	*	1
4846	440	*	1
2770	410	0.0/658aa/49.84%	1
5141	441	*	1
1411	442	*	1
2774	410	0.0/667aa/54.55%	1
3917	151	6e-69/639aa/28.9%	1
1084	443	*	1
3582	444	*	1
4468	345	1e-133/527aa/35.91%	1
1922	390	1e-87/595aa/31.62%	1
1846	445	*	1
1861	446	*	1
4905	447	*	1
1523	448	*	1
1785	345	3e-82/627aa/29.54%	1
1520	449	*	1
2513	267	3e-89/546aa/28.23%	1
2768	410	0.0/658aa/51.32%	1
4480	427	1e-42/351aa/16.84%	1
4805	450	*	1
789	327	9e-144/604aa/38.9%	1
2443	451	*	1
907	421	1e-86/676aa/34.27%	1
1400	452	*	1
2583	319	3e-92/607aa/36.2%	1
2589	335	2e-81/413aa/25.7%	1
4607	327	5e-31/501aa/19.12%	1
1568	453	*	1
3405	411	2e-141/649aa/41.13%	1
3915	100	2e-95/665aa/33.9%	1
786	327	1e-130/605aa/37.42%	1
1522	449	1e-93/168:422aa/42.92%	1
2844	454	*	1
777	455	*	1
1976	404	1e-105/659aa/33.43%	1
1257	456	*	1
3724	436	0.0/608aa/56.71%	1
1970	457	*	1
2148	458	*	1
565	424	0.0/578aa/49.92%	1
4420	459	*	1
4652	460	*	1
4773	423	0.0/658aa/55.46%	1
248	461	*	1
1419	462	*	1
3158	463	*	1
4617	422	3e-47/456aa/21.74%	1
5089	464	*	1
2594	415	1e-76/352:86aa/30.89%	1
4512	465	*	1
4591	466	*	1
1010	467	1e-94/623aa/31.1%	1
1011	467	*	1
1969	457	0.0/539aa/55.02%	1
3010	468	*	1
3873	469	*	1
663	312	1e-31/320:143aa/25.12%	1
785	398	0.0/693aa/53.12%	1
1719	470	*	1
3159	463	0.0/628aa/57.76%	1
4613	327	3e-19/391aa/17.92%	1
4762	362	4e-75/715aa/36.96%	1
654	408	0.0/654aa/59.13%	1
657	408	4e-162/645aa/48.87%	1
993	471	*	1
2710	388	0.0/582aa/53.52%	1
4642	324	4e-152/636aa/41.98%	1
4719	472	*	1
2692	417	0.0/587aa/49.91%	1
2765	410	0.0/631aa/47.19%	1
2766	410	0.0/632aa/49.11%	1
2772	410	0.0/636aa/45.58%	1
3122	318	5e-75/482aa/25.2%	1
3727	436	0.0/616aa/49.11%	1
255	148	0.0/607aa/52.09%	1
1546	407	5e-132/385aa/33.11%	1
1566	453	5e-120/618aa/37.29%	1
3136	318	3e-78/494aa/25.72%	1
2199	396	1e-35/540aa/20.77%	1
1392	267	2e-64/500aa/24.03%	1
1722	470	6e-92/504aa/27.58%	1
4469	345	0.0/520aa/39.51%	1
5045	465	2e-95/571aa/30.96%	1
5131	473	*	1
1979	404	2e-125/587aa/34.24%	1
4472	345	0.0/522aa/41.68%	1
169	474	*	1
534	321	7e-24/581aa/22.16%	1
2385	475	*	1
966	476	*	1
1837	477	*	1
1720	470	6e-51/499aa/21.26%	1
2732	478	*	1
4610	327	2e-34/534aa/24.51%	1
622	479	*	1
2556	480	*	1
2598	481	*	1
2764	410	0.0/629aa/54.63%	1
3097	482	*	1
2771	410	0.0/632aa/46.9%	1
4678	483	*	1
566	424	1e-84/577aa/29.36%	1
1491	484	*	1
2626	485	*	1
2826	351	3e-50/384aa/19.57%	1
2773	410	0.0/625aa/47.54%	1
3577	467	2e-102/616aa/33.98%	1
4739	486	*	1
564	424	1e-102/592aa/31.58%	1
610	487	*	1
2545	249	1e-62/556aa/25.85%	1
2767	410	1e-147/613aa/40.75%	1
1548	407	0.0/541aa/57.54%	1
1867	368	2e-32/415aa/18.03%	1
623	479	0.0/613aa/47.78%	1
2166	347	2e-59/455aa/25.12%	1
3129	318	2e-85/510aa/28.89%	1
618	479	1e-92/583aa/27.79%	1
1033	488	*	1
3916	151	2e-67/673aa/30.75%	1
257	489	*	1
619	479	8e-156/604aa/37.56%	1
620	479	6e-169/605aa/40.69%	1
2720	321	1e-63/625aa/27.67%	1
533	337	7e-19/544aa/20.95%	1
1020	443	9e-111/460aa/30.69%	1
1510	490	*	1
2769	410	5e-140/630aa/41.25%	1
3751	491	*	1
3815	452	2e-16/450aa/16.33%	1
170	474	7e-167/561aa/40.16%	1
1794	477	0.0/624aa/57.85%	1
3816	452	5e-14/541aa/20.03%	1
4757	492	*	1
40	337	3e-15/555aa/20.89%	1
1171	477	0.0/621aa/50.41%	1
2708	451	5e-42/450aa/20.56%	1
2828	493	0.0/601aa/59.03%	1
2829	493	0.0/598aa/46.93%	1
2830	493	*	1
3095	482	2e-158/529aa/41.79%	1
3140	318	2e-100/481aa/30.51%	1
3168	386	8e-59/448aa/22.55%	1
4605	398	2e-36/540aa/22.05%	1
1174	494	*	1
3116	318	1e-91/491aa/28.57%	1
3425	318	5e-60/423aa/21.92%	1
2159	458	4e-49/260:92aa/22.96%	1
3134	318	1e-82/585aa/32.94%	1
3145	318	3e-95/601aa/34.1%	1
3146	318	3e-106/579aa/31.78%	1
1252	456	1e-96/407aa/28.33%	1
1547	407	2e-153/491aa/40.5%	1
1714	321	7e-76/616aa/32.66%	1
3591	495	*	1
4732	496	*	1
4760	362	8e-141/730aa/49.08%	1
5120	497	*	1
920	432	2e-118/442aa/35.45%	1
1373	221	7e-126/614aa/40.3%	1
1868	368	3e-129/647aa/40.3%	1
3142	318	1e-85/621aa/32.6%	1
3711	498	*	1
562	424	0.0/573aa/51.42%	1
3123	318	6e-74/595aa/30.15%	1
3137	318	5e-91/592aa/33.16%	1
3902	499	*	1
696	500	*	1
1987	404	3e-38/540aa/22.31%	1
2679	371	3e-105/483aa/29.19%	1
3003	501	*	1
3874	502	*	1
4740	503	*	1
5132	354	1e-112/438aa/31.04%	1
1019	443	2e-97/455aa/29.57%	1
1521	449	0.0/647aa/81%	1
3628	504	*	1
4627	466	6e-79/322:61aa/27.73%	1
1744	426	3e-79/601aa/32.82%	1
2982	505	*	1
20	506	*	1
1018	507	*	1
1980	404	2e-161/669aa/44.68%	1
1955	508	*	1
4566	509	*	1
3706	510	*	1
4927	511	*	1
222	512	*	1
2388	513	*	1
3584	444	3e-162/571aa/41.86%	1
168	474	5e-153/557aa/40.74%	1
952	318	2e-88/571aa/31.74%	1
1567	453	3e-94/618aa/36.16%	1
1864	368	2e-28/581aa/22.41%	1
3048	514	*	1
3120	318	7e-90/491aa/30.56%	1
3126	318	5e-83/497aa/28.52%	1
3138	318	4e-73/551aa/27.67%	1
3149	318	3e-93/470aa/28.18%	1
3566	515	*	1
3583	444	3e-174/573aa/44.14%	1
4543	516	*	1
1866	368	4e-35/414aa/19.38%	1
1978	404	2e-113/656aa/37.58%	1
2779	417	0.0/551aa/52.55%	1
3133	318	3e-98/571aa/32.65%	1
4912	506	1e-55/541aa/28.74%	1
3130	318	3e-92/589aa/34.24%	1
4599	517	*	1
4675	423	2e-103/455aa/29.81%	1
247	328	3e-73/541aa/29.18%	1
535	337	1e-22/392aa/18.25%	1
543	337	8e-50/572aa/27.13%	1
2823	351	2e-54/327:286aa/34.47%	1
3144	318	3e-93/598aa/34.47%	1
4611	518	*	1
1316	519	*	1
2228	520	*	1
2572	521	*	1
3127	318	1e-77/586aa/32.13%	1
3131	318	1e-102/508aa/31.79%	1
3139	318	1e-87/497aa/30.08%	1
1717	453	5e-114/594aa/36.47%	1
3117	318	5e-72/502aa/28.08%	1
3121	318	2e-83/488aa/28.42%	1
3125	318	3e-104/585aa/34.76%	1
3906	499	0.0/593aa/55.3%	1
4871	522	*	1
5028	523	*	1
5048	318	1e-54/580aa/27.56%	1
1388	524	*	1
2693	417	0.0/550aa/50.94%	1
2821	351	2e-52/319:274aa/31.9%	1
3135	318	3e-86/585aa/34.47%	1
4718	472	0.0/540aa/56.43%	1
4837	525	*	1
1091	443	1e-172/467aa/41.4%	1
1498	389	4e-38/373aa/20.44%	1
2660	526	*	1
3119	318	1e-89/481aa/29.03%	1
3132	318	2e-95/582aa/34.7%	1
4620	422	6e-62/579aa/28.52%	1
4904	527	*	1
664	312	1e-39/290:140aa/26.67%	1
2412	528	*	1
3141	318	3e-92/538aa/30.98%	1
3143	318	1e-91/501aa/30.63%	1
3147	318	2e-81/550aa/29.25%	1
3726	368	8e-33/454:95aa/25.3%	1
3823	529	*	1
19	506	6e-51/583aa/28.96%	1
544	337	1e-45/538aa/26.55%	1
1917	530	*	1
3180	531	*	1
5073	318	4e-93/492aa/29.65%	1
1258	456	4e-85/411:125aa/35.23%	1
1862	368	3e-32/477aa/21.58%	1
3124	318	5e-98/579aa/35.4%	1
3148	318	7e-93/564aa/32.29%	1
4516	394	3e-10/400aa/18.13%	1
36	337	1e-17/542aa/20.24%	1
955	456	3e-89/428:109aa/36.85%	1
1160	532	*	1
3905	499	0.0/596aa/55.88%	1
18	506	3e-54/577aa/30.67%	1
529	337	3e-36/593aa/25.99%	1
542	337	6e-41/533aa/24.95%	1
782	327	1e-117/492aa/36.74%	1
3103	533	*	1
4070	534	*	1
4761	535	*	1
1519	449	2e-94/154:386aa/48.26%	1
1863	368	1e-26/420:115aa/23.95%	1
1984	404	9e-42/574aa/24.65%	1
2625	485	0.0/421aa/56%	1
2822	493	1e-41/589aa/26.08%	1
4609	518	1e-29/427aa/22.43%	1
1203	536	*	1
1874	537	*	1
2824	493	2e-37/609aa/28.39%	1
3118	318	1e-86/574aa/32.92%	1
3434	538	*	1
4753	539	*	1
10	527	5e-16/341aa/12.91%	1
1122	540	*	1
1549	407	0.0/557aa/65.44%	1
2842	541	*	1
4570	542	*	1
1307	543	*	1
3013	544	*	1
3128	318	1e-98/577aa/34.26%	1
4032	528	6e-25/554aa/22.9%	1
1090	443	1e-145/464aa/38.35%	1
1453	545	*	1
1728	321	1e-72/463aa/28.54%	1
4341	546	*	1
4612	518	2e-56/301:92aa/24.38%	1
11	527	5e-25/331:136aa/22.67%	1
43	534	2e-69/323aa/21.08%	1
588	337	6e-19/548aa/21.79%	1
4745	547	*	1
171	474	0.0/520aa/51.05%	1
4033	548	*	1
4538	516	3e-132/501aa/36.26%	1
172	474	0.0/535aa/54.24%	1
658	408	2e-67/302:197aa/44.52%	1
2444	549	*	1
2449	549	0.0/556aa/47.87%	1
2777	417	1e-62/526aa/29.68%	1
2983	550	*	1
4996	551	*	1
1988	404	3e-42/541aa/24.42%	1
2446	549	0.0/564aa/55.39%	1
2448	549	0.0/565aa/51.32%	1
2564	552	*	1
4182	553	*	1
5134	354	2e-137/418aa/39.82%	1
665	312	2e-30/304:124aa/25.17%	1
767	554	*	1
1361	555	*	1
2445	549	7e-161/572aa/43.26%	1
2507	556	*	1
3514	557	*	1
3821	558	*	1
3900	499	0.0/589aa/50.7%	1
4377	513	4e-171/540aa/44.32%	1
1499	389	4e-37/367aa/21.31%	1
1845	445	0.0/534aa/69.8%	1
4665	451	1e-37/356aa/17.93%	1
4831	559	*	1
14	337	5e-22/535aa/23.3%	1
1859	190	2e-132/633aa/45.55%	1
2707	451	4e-36/426aa/20.99%	1
2717	337	1e-23/545aa/23.84%	1
4663	451	2e-43/469aa/22.59%	1
557	560	*	1
1245	561	*	1
2508	556	4e-138/525aa/39.03%	1
3509	562	*	1
21	506	7e-31/601aa/27.85%	1
2560	563	*	1
2716	337	9e-31/545aa/25%	1
3525	564	*	1
47	565	*	1
1926	566	*	1
2237	567	*	1
4038	500	8e-113/505aa/39.35%	1
2705	568	*	1
4661	568	2e-29/281aa/13.08%	1
1213	569	*	1
1256	456	0.0/426:99aa/63.73%	1
2565	552	0.0/556aa/59.78%	1
3822	529	1e-110/478aa/32.67%	1
260	489	4e-172/501aa/45.14%	1
1232	570	*	1
3936	571	*	1
4416	564	5e-29/469aa/20.14%	1
4741	572	*	1
4832	573	*	1
1927	566	9e-151/477aa/40%	1
2525	574	*	1
3796	575	*	1
4190	576	*	1
1089	443	0.0/488aa/51.26%	1
1551	407	0.0/553aa/53.97%	1
2216	577	*	1
816	578	*	1
1875	579	*	1
2390	513	8e-160/530aa/43.39%	1
41	337	6e-18/562aa/23.18%	1
1159	580	*	1
1365	581	*	1
2470	582	*	1
2588	583	*	1
3062	391	0.0/483aa/52.17%	1
4497	584	*	1
4540	516	2e-125/490aa/37.13%	1
1986	404	7e-41/550aa/26.86%	1
3534	585	*	1
614	586	*	1
1259	456	1e-53/428aa/23.45%	1
1716	337	4e-27/538aa/26.54%	1
1795	477	0.0/622aa/56.54%	1
1981	404	2e-42/536aa/24.54%	1
4040	500	1e-110/508aa/36%	1
4630	587	*	1
1105	588	*	1
2743	328	3e-29/589aa/27.68%	1
1726	470	1e-51/489aa/26.27%	1
1751	337	2e-30/539aa/23.35%	1
1974	566	5e-175/451aa/43.79%	1
2389	513	2e-154/526aa/43.79%	1
3835	566	0.0/484aa/49.27%	1
1120	540	2e-165/549aa/48.08%	1
1973	566	7e-158/481aa/42.96%	1
1975	404	4e-33/562aa/23.58%	1
2417	495	4e-14/348aa/14.99%	1
3498	589	*	1
586	321	4e-13/479aa/21.42%	1
645	337	1e-18/423aa/19.04%	1
1161	580	0.0/500aa/54.02%	1
2619	590	*	1
815	578	0.0/484aa/49.35%	1
1088	443	0.0/443aa/49.54%	1
2492	591	*	1
3590	419	2e-29/594aa/27.15%	1
4339	592	*	1
4542	516	7e-139/495aa/39.08%	1
13	337	3e-31/528aa/22.61%	1
37	337	5e-25/403aa/19.11%	1
3750	593	*	1
4539	516	1e-120/450aa/35.47%	1
732	495	2e-24/396aa/18.78%	1
1405	419	6e-30/608aa/27.99%	1
1537	561	4e-16/343aa/14.36%	1
2391	594	*	1
1170	477	0.0/618aa/52.76%	1
1925	566	3e-170/493aa/47.23%	1
4835	595	*	1
4988	495	3e-15/448aa/19.55%	1
1121	540	2e-160/524aa/43.99%	1
1844	596	*	1
2617	597	*	1
2719	321	2e-25/507aa/23.1%	1
3644	251	2e-43/500aa/23.65%	1
4598	598	*	1
4742	547	5e-69/574aa/31.42%	1
175	512	1e-106/370aa/33.33%	1
3719	414	8e-115/342aa/31.66%	1
4744	547	9e-72/570aa/30.55%	1
615	586	2e-11/289aa/12.8%	1
1253	456	1e-81/429:75aa/35.25%	1